#     Step Nr.          Time[fs]        Kin.[a.u.]          Temp[K]            Pot.[a.u.]        Cons Qty[a.u.]        UsedTime[s]
         0            0.000000         0.275037913       300.000000000     -1102.172781326     -1101.897743413         0.000000000
         1            0.500000         0.937722889      1022.829413416     -1102.983972703     -1101.980821145        76.263078220
         2            1.000000         0.962170398      1049.495746781     -1103.079332631     -1101.956809767        14.094671234
         3            1.500000         0.870258398       949.241931635     -1103.082896955     -1101.953615006        13.220072869
         4            2.000000         0.774480217       844.771046515     -1103.057709300     -1101.952484610        13.270156344
         5            2.500000         0.726013311       791.905346286     -1103.027809451     -1101.951930123        15.680008538
         6            3.000000         0.685143963       747.326747922     -1102.998519373     -1101.951681696        19.741085337
         7            3.500000         0.633283848       690.759876441     -1102.970669657     -1101.951458911        19.781974586
         8            4.000000         0.594402413       648.349611660     -1102.946620587     -1101.951238004        16.404139545
         9            4.500000         0.558767199       609.480192310     -1102.928682350     -1101.951102436        64.505612418
        10            5.000000         0.531739984       580.000021779     -1102.917973461     -1101.951124107        19.936858904
        11            5.500000         0.533408934       581.820443725     -1102.918259926     -1101.951302794       270.201031923
        12            6.000000         0.520775384       568.040288318     -1102.921298702     -1101.952260185       270.702585444
        13            6.500000         0.479386970       522.895515387     -1102.918347127     -1101.953903922        55.744392660
        14            7.000000         0.449579276       490.382513470     -1102.892828188     -1101.954881614        23.976770915
        15            7.500000         0.413164283       450.662542365     -1102.843935975     -1101.952245163       270.776843065
        16            8.000000         0.375575642       409.662404824     -1102.815279991     -1101.949106902       270.838132182
        17            8.500000         0.372754877       406.585630228     -1102.832675556     -1101.952319096        31.265566833
        18            9.000000         0.393083757       428.759533971     -1102.867055914     -1101.955294624        32.926762972
        19            9.500000         0.386825798       421.933610442     -1102.878163678     -1101.955312526       271.029794408
        20           10.000000         0.378347169       412.685471394     -1102.875124857     -1101.954825429        38.491652915
        21           10.500000         0.383483230       418.287674725     -1102.866007284     -1101.954529705        36.098876808
        22           11.000000         0.361083681       393.855171770     -1102.854796505     -1101.954280191        31.627324920
        23           11.500000         0.350904299       382.751921777     -1102.845645023     -1101.954239309        94.243420294
        24           12.000000         0.337638075       368.281672241     -1102.838704182     -1101.954248398        21.338705486
        25           12.500000         0.314580423       343.131337576     -1102.833014334     -1101.954257692        22.152466632
        26           13.000000         0.305553498       333.285140384     -1102.829585132     -1101.954258889        32.076366771
        27           13.500000         0.316487757       345.211779154     -1102.828347140     -1101.954249160        24.594728833
        28           14.000000         0.312127945       340.456276452     -1102.830955539     -1101.954242348        22.099439772
        29           14.500000         0.313732074       342.205993971     -1102.838375555     -1101.954302636        19.608997269
        30           15.000000         0.326813088       356.474224140     -1102.846177175     -1101.954326728        21.655774521
        31           15.500000         0.345988548       377.390024281     -1102.854559750     -1101.954326634        18.110033980
        32           16.000000         0.353308267       385.374071387     -1102.862894103     -1101.954320770        14.846420169
        33           16.500000         0.346277915       377.705653803     -1102.872750601     -1101.954311923        15.682041420
        34           17.000000         0.363554465       396.550200802     -1102.886341726     -1101.954381519        14.005862527
        35           17.500000         0.369992744       403.572809889     -1102.901036213     -1101.954561857        16.469566131
        36           18.000000         0.373072104       406.931649018     -1102.916195288     -1101.954894324        14.050480623
        37           18.500000         0.390785398       426.252578462     -1102.925129492     -1101.955218062        13.188689530
        38           19.000000         0.368840652       402.316155491     -1102.925507981     -1101.955329746        13.172398845
        39           19.500000         0.368576004       402.027488589     -1102.921386053     -1101.955027232        13.197856383
        40           20.000000         0.355070546       387.296292416     -1102.921884304     -1101.954430800        16.540243166
        41           20.500000         0.384930718       419.866535217     -1102.931896526     -1101.954144315        15.639888005
        42           21.000000         0.403372221       439.981765735     -1102.955568456     -1101.954737401        14.028950287
        43           21.500000         0.412060113       449.458159505     -1102.982083998     -1101.955432437        19.743739860
        44           22.000000         0.414475234       452.092473830     -1103.005331814     -1101.955704777        17.500822483
        45           22.500000         0.413873345       451.435958294     -1103.017474050     -1101.955637469        15.704476116
        46           23.000000         0.390220525       425.636438198     -1103.023218073     -1101.955571138        10.762528749
        47           23.500000         0.383977146       418.826418363     -1103.029366627     -1101.955595835         9.941754801
        48           24.000000         0.394870880       430.708853470     -1103.034570863     -1101.955537863         9.126432683
        49           24.500000         0.407901359       444.921961828     -1103.040804050     -1101.955538396         9.175199373
        50           25.000000         0.408021587       445.053101480     -1103.046820682     -1101.955767805        11.329851286
        51           25.500000         0.381349940       415.960770671     -1103.050514468     -1101.956209842         9.125845585
        52           26.000000         0.364904059       398.022282577     -1103.049405954     -1101.956549538         9.159335131
        53           26.500000         0.358148857       390.653986524     -1103.036856799     -1101.956274592         9.144923629
        54           27.000000         0.340700914       371.622491124     -1103.025201365     -1101.955397160         9.189459516
        55           27.500000         0.322504935       351.775068236     -1103.028166909     -1101.955397287         9.965971952
        56           28.000000         0.314910852       343.491756015     -1103.043592072     -1101.956203600         9.989054745
        57           28.500000         0.338852504       369.606322263     -1103.060790517     -1101.956923377         9.964530954
        58           29.000000         0.338985181       369.751040693     -1103.068461617     -1101.957065607         9.972827489
        59           29.500000         0.343511313       374.687958767     -1103.069063397     -1101.956917954         9.967704233
        60           30.000000         0.336318685       366.842536196     -1103.065875507     -1101.956688965        12.958525516
        61           30.500000         0.350677802       382.504869071     -1103.065509767     -1101.956582379         9.952635981
        62           31.000000         0.356254527       388.587730052     -1103.063497205     -1101.956489174         9.985761914
        63           31.500000         0.352267536       384.238884312     -1103.062933093     -1101.956485083        10.007327350
        64           32.000000         0.345975466       377.375754570     -1103.062494676     -1101.956507708         9.149179561
        65           32.500000         0.351897217       383.834956477     -1103.064061265     -1101.956540566         9.136031404
        66           33.000000         0.357551113       390.001992842     -1103.065076782     -1101.956444343         9.159041090
        67           33.500000         0.363557684       396.553712423     -1103.070195585     -1101.956392844         9.121448230
        68           34.000000         0.378560715       412.918398951     -1103.078882316     -1101.956475903         9.200417800
        69           34.500000         0.391211480       426.717331300     -1103.089921664     -1101.956630983         8.311977824
        70           35.000000         0.392258339       427.859201780     -1103.098218183     -1101.956764960        11.718484892
        71           35.500000         0.391071538       426.564687770     -1103.104259125     -1101.956852903         8.323856860
        72           36.000000         0.379094488       413.500616842     -1103.109012958     -1101.956881862         8.330516029
        73           36.500000         0.373714434       407.632275585     -1103.108884164     -1101.956754152         8.335092559
        74           37.000000         0.355593209       387.866392003     -1103.108337247     -1101.956595407         8.345469551
        75           37.500000         0.366588138       399.859206689     -1103.110875825     -1101.956618919         8.347593725
        76           38.000000         0.353953896       386.078296731     -1103.114364418     -1101.956696607         8.297758812
        77           38.500000         0.347407913       378.938208760     -1103.119181045     -1101.956788433         8.353626104
        78           39.000000         0.347683033       379.238298455     -1103.123239847     -1101.956820059         8.349896224
        79           39.500000         0.335773065       366.247396699     -1103.126913665     -1101.956846168         8.353989169
        80           40.000000         0.321809572       351.016595499     -1103.130289896     -1101.956884334        10.861580115
        81           40.500000         0.344441321       375.702372177     -1103.133090859     -1101.956949005         8.352119576
        82           41.000000         0.334230206       364.564509634     -1103.133968123     -1101.956953998         8.391778413
        83           41.500000         0.339473106       370.283248698     -1103.134413860     -1101.956952818         8.322117114
        84           42.000000         0.343132316       374.274563783     -1103.134250022     -1101.956972180         8.361626847
        85           42.500000         0.343337773       374.498668377     -1103.132129804     -1101.957000497         8.307900965
        86           43.000000         0.338495180       369.216567982     -1103.131447992     -1101.957115384         8.350131709
        87           43.500000         0.319807185       348.832473667     -1103.129656451     -1101.957222974         8.333735624
        88           44.000000         0.327956834       357.721774906     -1103.125670171     -1101.957230478         8.302275915
        89           44.500000         0.315639256       344.286269471     -1103.118506240     -1101.957097297         8.395262701
        90           45.000000         0.308045876       336.003723557     -1103.110299551     -1101.956925558        11.136111179
        91           45.500000         0.308993376       337.037217284     -1103.105196202     -1101.956801897         8.343559355
        92           46.000000         0.310126110       338.272756979     -1103.103028715     -1101.956804166         8.295913380
        93           46.500000         0.285983515       311.939010809     -1103.101853421     -1101.956811971         8.318495659
        94           47.000000         0.280676985       306.150867344     -1103.102963548     -1101.956863430         8.358529117
        95           47.500000         0.293943668       320.621617423     -1103.108109928     -1101.957014314         8.319738911
        96           48.000000         0.297770293       324.795541742     -1103.111448249     -1101.957084388         8.375962075
        97           48.500000         0.301250958       328.592108143     -1103.111793919     -1101.957052908         8.328369996
        98           49.000000         0.296402610       323.303730254     -1103.108605023     -1101.956955307         8.312660154
        99           49.500000         0.299805574       327.015542295     -1103.103208152     -1101.956846456         8.344878845
       100           50.000000         0.262844605       286.700043638     -1103.099800446     -1101.956787147        11.430276109
       101           50.500000         0.272395285       297.117530527     -1103.100489904     -1101.956784117         7.505146872
       102           51.000000         0.290371371       316.725102989     -1103.102747287     -1101.956825116         7.510334684
       103           51.500000         0.291093352       317.512610340     -1103.101942055     -1101.956780690         7.582901459
       104           52.000000         0.292584040       319.138591891     -1103.103216966     -1101.956783843         8.306599010
       105           52.500000         0.290005499       316.326025238     -1103.106133737     -1101.956837318         8.340581728
       106           53.000000         0.292498132       319.044886604     -1103.111820848     -1101.956957881         8.349444084
       107           53.500000         0.303129858       330.641534220     -1103.117963063     -1101.957086240         7.499450140
       108           54.000000         0.312262991       340.603578475     -1103.125350752     -1101.957283423         7.546906130
       109           54.500000         0.321444982       350.618915109     -1103.130728885     -1101.957419570         8.312667243
       110           55.000000         0.314993253       343.581635438     -1103.128486996     -1101.957358705        11.920003638
       111           55.500000         0.310700929       338.899746507     -1103.121399022     -1101.957172661         8.322274396
       112           56.000000         0.312064184       340.386728029     -1103.113146689     -1101.956945031         7.561111625
       113           56.500000         0.296165737       323.045358933     -1103.106392215     -1101.956784382         8.342208769
       114           57.000000         0.299231069       326.388896254     -1103.103927126     -1101.956739630         7.481319774
       115           57.500000         0.301550580       328.918923584     -1103.106047407     -1101.956801543         7.552354941
       116           58.000000         0.298608729       325.710073979     -1103.110345085     -1101.956920517         8.367743999
       117           58.500000         0.291315869       317.755322480     -1103.117599155     -1101.957129649         8.302261299
       118           59.000000         0.309832242       337.952218210     -1103.123726336     -1101.957272142         7.517091723
       119           59.500000         0.314667202       343.225993239     -1103.125941537     -1101.957322949         7.501713822
       120           60.000000         0.302642932       330.110415578     -1103.124836220     -1101.957262045        10.187130937
       121           60.500000         0.288891274       315.110674851     -1103.124100278     -1101.957220016         7.526594440
       122           61.000000         0.294453414       321.177627526     -1103.123822155     -1101.957204729         8.321082685
       123           61.500000         0.290843242       317.239801328     -1103.124332681     -1101.957200478         7.524681713
       124           62.000000         0.299987434       327.213907809     -1103.122917014     -1101.957154999         7.525416290
       125           62.500000         0.302268789       329.702315460     -1103.122647779     -1101.957110539         7.541815758
       126           63.000000         0.307632446       335.552771510     -1103.122625497     -1101.957018281         7.534820063
       127           63.500000         0.321087528       350.229019483     -1103.125727338     -1101.957035737         7.513809277
       128           64.000000         0.307646857       335.568490089     -1103.125265294     -1101.957002750         7.549404420
       129           64.500000         0.315153969       343.756938669     -1103.126777950     -1101.957014392         7.507855302
       130           65.000000         0.324153865       353.573652707     -1103.128054609     -1101.957049808        10.581343731
       131           65.500000         0.308276882       336.255695290     -1103.129545293     -1101.957079753         7.530136619
       132           66.000000         0.300083405       327.318589251     -1103.127171091     -1101.957037654         7.541383179
       133           66.500000         0.310344970       338.511480403     -1103.120631437     -1101.956897240         7.545188136
       134           67.000000         0.301573663       328.944101173     -1103.114440388     -1101.956759524         7.513870547
       135           67.500000         0.293625278       320.274331159     -1103.110195884     -1101.956647517         7.533697179
       136           68.000000         0.286170507       312.142974940     -1103.107986001     -1101.956559382         7.580085987
       137           68.500000         0.290023817       316.346005442     -1103.109432699     -1101.956524618         8.304844690
       138           69.000000         0.292694467       319.259041009     -1103.114888760     -1101.956624584         7.554856258
       139           69.500000         0.283793254       309.549965391     -1103.122557547     -1101.956796980         7.516030323
       140           70.000000         0.307575126       335.490249400     -1103.131748453     -1101.957018917        10.265215641
       141           70.500000         0.301914189       329.315532693     -1103.136035216     -1101.957145973         7.565996807
       142           71.000000         0.313012983       341.421639447     -1103.135399508     -1101.957168973         8.339207193
       143           71.500000         0.287086311       313.141895552     -1103.131641394     -1101.957099468         7.567637853
       144           72.000000         0.293415829       320.045872131     -1103.127588809     -1101.956919593         8.310507135
       145           72.500000         0.290467953       316.830451173     -1103.121670049     -1101.956712519         8.301752590
       146           73.000000         0.266378692       290.554879377     -1103.120652684     -1101.956709933         8.359732298
       147           73.500000         0.275397559       300.392286946     -1103.121587255     -1101.956830883         7.536061564
       148           74.000000         0.277469863       302.652671569     -1103.122328939     -1101.956910454         7.539622238
       149           74.500000         0.283323063       309.037099710     -1103.121887062     -1101.956897670         7.514148215
       150           75.000000         0.280355623       305.800338585     -1103.123447262     -1101.956942375        10.984548001
       151           75.500000         0.289373636       315.636815006     -1103.126871065     -1101.957030776         7.509816932
       152           76.000000         0.290591651       316.965375416     -1103.128540785     -1101.957014073         8.381863249
       153           76.500000         0.282295940       307.916757190     -1103.129281398     -1101.956962180         8.346534705
       154           77.000000         0.282128951       307.734612290     -1103.129573983     -1101.956911592         7.513447300
       155           77.500000         0.266493297       290.679885835     -1103.131808224     -1101.956909118         7.585700752
       156           78.000000         0.276074872       301.131072306     -1103.132494085     -1101.956863978         8.355491238
       157           78.500000         0.276548156       301.647311569     -1103.136804248     -1101.956911552         8.377543207
       158           79.000000         0.299931009       327.152361340     -1103.142823633     -1101.957043208         8.376557902
       159           79.500000         0.300640012       327.925712599     -1103.145053602     -1101.957072371         8.316717006
       160           80.000000         0.298876465       326.002108912     -1103.142406935     -1101.957018305        11.462892994
       161           80.500000         0.280980806       306.482263335     -1103.139216456     -1101.956934077         8.329982802
       162           81.000000         0.269972640       294.475010026     -1103.135308431     -1101.956834636         8.338186113
       163           81.500000         0.283807740       309.565765484     -1103.133796752     -1101.956808615         8.329370642
       164           82.000000         0.294719614       321.467987484     -1103.132757449     -1101.956783617         8.322421685
       165           82.500000         0.301295317       328.640493175     -1103.132531368     -1101.956781156         8.304629231
       166           83.000000         0.296128897       323.005174561     -1103.134762936     -1101.956838624         8.321413428
       167           83.500000         0.292184478       318.702765149     -1103.135505567     -1101.956841452         8.353645813
       168           84.000000         0.300274813       327.527369095     -1103.137052885     -1101.956893361         8.384262657
       169           84.500000         0.283901135       309.667636568     -1103.135268994     -1101.956898449         8.317043625
       170           85.000000         0.291061583       317.477957734     -1103.132530031     -1101.956858296        11.504313000
       171           85.500000         0.260162880       283.774928759     -1103.128265422     -1101.956728607         8.356600283
       172           86.000000         0.266889714       291.112281004     -1103.128539777     -1101.956679890         8.312248584
       173           86.500000         0.266842844       291.061157015     -1103.131487786     -1101.956696265         8.326652033
       174           87.000000         0.274038877       298.910293306     -1103.136436841     -1101.956783512         8.359237641
       175           87.500000         0.271764826       296.429852682     -1103.141649633     -1101.956902279         8.319296453
       176           88.000000         0.278457974       303.730461762     -1103.145112960     -1101.956963946         8.326688046
       177           88.500000         0.295061201       321.840576378     -1103.146960433     -1101.956948758         8.352438834
       178           89.000000         0.301614052       328.988155508     -1103.144522343     -1101.956801435         7.516960613
       179           89.500000         0.308041320       335.998753911     -1103.142600691     -1101.956653580         8.346821615
       180           90.000000         0.311631382       339.914645433     -1103.141594032     -1101.956574659        11.609717019
       181           90.500000         0.312935741       341.337386431     -1103.142982618     -1101.956602239         8.381293723
       182           91.000000         0.296586092       323.503864835     -1103.149272151     -1101.956766324         8.346584802
       183           91.500000         0.312476461       340.836423386     -1103.154919524     -1101.956893160         8.335669536
       184           92.000000         0.305782397       333.534814592     -1103.160607342     -1101.957017416         8.322658751
       185           92.500000         0.312800146       341.189485517     -1103.163936266     -1101.957121212         8.339768374
       186           93.000000         0.314397379       342.931681266     -1103.163414716     -1101.957106394         8.338224392
       187           93.500000         0.302719742       330.194196316     -1103.160415078     -1101.957038594         8.319892235
       188           94.000000         0.306810245       334.655948605     -1103.155614089     -1101.956883490         8.376329523
       189           94.500000         0.292998893       319.591095982     -1103.149550401     -1101.956714680         8.337224733
       190           95.000000         0.283811454       309.569817215     -1103.142770568     -1101.956515399        10.862956829
       191           95.500000         0.281810896       307.387691006     -1103.141473776     -1101.956462507         8.324023699
       192           96.000000         0.275292162       300.277325178     -1103.146894950     -1101.956575350         7.529477796
       193           96.500000         0.291410349       317.858378018     -1103.150888960     -1101.956672706         8.315349706
       194           97.000000         0.294413410       321.133992938     -1103.156211983     -1101.956785825         8.302433265
       195           97.500000         0.296406231       323.307679828     -1103.160915743     -1101.956867281         8.400365004
       196           98.000000         0.290680918       317.062744382     -1103.161328470     -1101.956864745         8.340835799
       197           98.500000         0.300132914       327.372591440     -1103.162690481     -1101.956913596         8.340793170
       198           99.000000         0.285505945       311.418097862     -1103.162445068     -1101.956879102         8.338252150
       199           99.500000         0.296225456       323.110497264     -1103.159310833     -1101.956750438         8.325608011
       200          100.000000         0.288493673       314.676987668     -1103.154369061     -1101.956591130        10.985137807
       201          100.500000         0.283379614       309.098783784     -1103.150851668     -1101.956493881         8.297661768
       202          101.000000         0.280604559       306.071868564     -1103.150639306     -1101.956515538         8.393358972
       203          101.500000         0.294005500       320.689061541     -1103.150365776     -1101.956563234         8.313487215
       204          102.000000         0.305988542       333.759668249     -1103.152938551     -1101.956627395         8.310812050
       205          102.500000         0.292659744       319.221166524     -1103.155731081     -1101.956668760         8.348066263
       206          103.000000         0.295145669       321.932710137     -1103.159739007     -1101.956734227         8.342983808
       207          103.500000         0.285177291       311.059615078     -1103.164331846     -1101.956852535         8.350680880
       208          104.000000         0.303478555       331.021878724     -1103.166734919     -1101.956956272         8.310193226
       209          104.500000         0.310122368       338.268675115     -1103.166998577     -1101.957012029         8.341237182
       210          105.000000         0.308601616       336.609902446     -1103.164256591     -1101.957008091        10.957159795
       211          105.500000         0.293484169       320.120414910     -1103.160041687     -1101.956883710         8.348929621
       212          106.000000         0.283068574       308.759513604     -1103.155804650     -1101.956726439         7.514841560
       213          106.500000         0.286966572       313.011288912     -1103.155823505     -1101.956696237         8.346412031
       214          107.000000         0.307368752       335.265144454     -1103.158422510     -1101.956770543         8.338412276
       215          107.500000         0.304843272       332.510455648     -1103.163241107     -1101.956915331         8.325209456
       216          108.000000         0.312950772       341.353781811     -1103.169853229     -1101.957095145         8.347999010
       217          108.500000         0.332754699       362.955087744     -1103.173851082     -1101.957176523         8.355031693
       218          109.000000         0.301443235       328.801835941     -1103.172463755     -1101.957091722         8.345751939
       219          109.500000         0.291708402       318.183482174     -1103.171087878     -1101.957018832         8.347948520
       220          110.000000         0.308692136       336.708637584     -1103.171883580     -1101.956996883        11.106746551
       221          110.500000         0.303024875       330.527022643     -1103.175422678     -1101.957041406         8.389788568
       222          111.000000         0.299352549       326.521401919     -1103.179696460     -1101.957078939         8.308729531
       223          111.500000         0.307165867       335.043846003     -1103.182734496     -1101.957089941         8.334172532
       224          112.000000         0.295989927       322.853591828     -1103.183316154     -1101.957079546         8.337247137
       225          112.500000         0.300592509       327.873898939     -1103.185502625     -1101.957158992         8.341266340
       226          113.000000         0.309922448       338.050611136     -1103.185139840     -1101.957167011         7.550556701
       227          113.500000         0.314820900       343.393640598     -1103.184940839     -1101.957116225         8.320615007