
Host: cs063.hpc.nyu.edu

Timers On : Wed Mar 27 00:53:02 2024
Timers Off: Wed Mar 27 00:53:02 2024

Wall Time:        0.36 seconds

                                                       Time (seconds)
Module                                       User      System        Wall        Calls

--------------------------------------------------------------------------------------

**************************************************************************************
